Created on Tue Jul 05 14:51:12 2022 

        3840 atoms
        4680 bonds
        7560 angles
       11520 dihedrals
        6120 impropers

           4 atom types
           3 bond types
           5 angle types
           3 dihedral types
           1 improper types
           0.000000  42.810600 xlo xhi
           0.000000  37.060200 ylo yhi
           0.000000  35.000000 zlo zhi
           0.000000   0.000000   0.000000 xy xz yz

Masses

    1    12.010700000 # C_R
    2    14.006700000 # N_R
    3    14.006700000 # N_3
    4     1.007940000 # H_

Bond Coeffs

    1      490.0        1.335  # C_R N_R
    2      490.0        1.335  # C_R N_3
    3      434.0        1.01  # N_3 H_

Angle Coeffs

    1              cosine_periodic      424.885146              -1               3 # N_R C_R N_R
    2              cosine_periodic      389.516810              -1               3 # N_R C_R N_3
    3              cosine_periodic      240.001032              -1               3 # C_R N_R C_R
    4                      fourier      276.501993        0.317506        0.313225        0.272502 # C_R N_3 C_R
    5                      fourier      150.574599        0.317506        0.313225        0.272502 # C_R N_3 H_

Dihedral Coeffs

    1        2.245703              -1               2 # N_R C_R N_R C_R
    2        1.497136              -1               2 # N_R C_R N_R C_R
    3        0.111111               1               3 # N_R C_R N_3 C_R

Improper Coeffs

    1        2.000000        1.000000       -1.000000        0.000000               0 # N_R C_R N_R N_R

Pair Coeffs

    1        0.105000        3.430851 # C_R C_R
    2        0.069000        3.260689 # N_R N_R
    3        0.069000        3.260689 # N_3 N_3
    4        0.044000        2.571134 # H_ H_

Atoms

       1      999        1     0.00000    1.12279    7.23919    1.45947
       2      999        1     0.00000   12.99614    4.96874    7.49759
       3      999        1     0.00000   10.39506    2.58324   10.66482
       4      999        1     0.00000    6.14431    3.97345   12.30677
       5      999        1     0.00000    5.53785    6.26043   15.91797
       6      999        1     0.00000    0.29886    9.24878    1.97421
       7      999        1     0.00000   12.09558    6.99104    7.19530
       8      999        1     0.00000    9.82221    4.73744   10.15805
       9      999        1     0.00000    5.25633    6.06835   12.31664
      10      999        1     0.00000    4.78212    8.38287   16.06234
      11      999        1     0.00000    4.85558    8.77041    1.99216
      12      999        1     0.00000   16.61368    6.63315    6.83826
      13      999        1     0.00000   14.04637    3.99216   11.51129
      14      999        1     0.00000    9.65049    5.63248   13.46506
      15      999        1     0.00000    9.09550    7.81296   16.89286
      16      999        1     0.00000    3.54502    6.97032    1.43563
      17      999        1     0.00000   15.42136    4.74515    7.34440
      18      999        1     0.00000   12.63178    2.21475   11.46544
      19      999        1     0.00000    8.48951    3.72266   13.00152
      20      999        1     0.00000    7.90977    5.93367   16.50352
      21      999        1     0.00000    2.09759    5.24024    1.32055
      22      999        1     0.00000   14.06756    2.98260    7.92830
      23      999        1     0.00000   11.14681    0.52418   11.28935
      24      999        1     0.00000    7.18246    1.94922   12.66940
      25      999        1     0.00000    6.48084    4.24906   16.10507
      26      999        1     0.00000    8.68152    6.92785    2.62084
      27      999        1     0.00000   20.35939    4.86182    6.29594
      28      999        1     0.00000   17.73883    2.17810   10.61837
      29      999        1     0.00000   13.33687    4.00880   14.98781
      30      999        1     0.00000   12.70572    6.26569    0.62234
      31      999        1     0.00000    7.33778    8.79750    2.49518
      32      999        1     0.00000   19.05825    6.72980    6.34273
      33      999        1     0.00000   16.54861    3.96366   11.30496
      34      999        1     0.00000   12.06261    5.74448   14.29680
      35      999        1     0.00000   11.43326    8.06789    0.14007
      36      999        1     0.00000    0.83476    3.13841    1.72018
      37      999        1     0.00000   12.78877    0.88396    7.75586
      38      999        1     0.00000    9.76630   10.83677   11.04495
      39      999        1     0.00000    5.81903   12.21916   12.73653
      40      999        1     0.00000    5.16621    2.20649   16.14553
      41      999        1     0.00000    0.03532    1.05825    1.89802
      42      999        1     0.00000   11.87934   11.16027    7.51863
      43      999        1     0.00000    9.11635    8.74380   10.68844
      44      999        1     0.00000    4.94835   10.12844   12.30925
      45      999        1     0.00000    4.36831    0.09065   16.16461
      46      999        1     0.00000   20.13404    2.92420    2.63305
      47      999        1     0.00000   10.62735    0.82340    7.01291
      48      999        1     0.00000    7.84872   10.66618    9.86181
      49      999        1     0.00000    3.57100   12.10638   12.46889
      50      999        1     0.00000    2.94965    2.08019   16.07228
      51      999        1     0.00000   20.64057   11.38682    2.50135
      52      999        1     0.00000   10.91713    9.12696    7.31811
      53      999        1     0.00000    8.49242    6.79799    9.84312
      54      999        1     0.00000    3.92941    8.18856   11.97235
      55      999        1     0.00000    3.40879   10.43163   16.09678
      56      999        1     0.00000   19.44590    0.74495    3.37974
      57      999        1     0.00000    9.62310   10.91601    6.81426
      58      999        1     0.00000    7.08815    8.45143    9.31725
      59      999        1     0.00000    2.50930    9.97327   12.05687
      60      999        1     0.00000    1.96368   12.20263   15.78927
      61      999        1     0.00000   18.10435    2.54203    3.68518
      62      999        1     0.00000    8.55715    0.48152    6.20168
      63      999        1     0.00000    5.83586   10.34676    8.89550
      64      999        1     0.00000    1.31026   11.91419   12.24349
      65      999        1     0.00000    0.69477    1.73264   15.92174
      66      999        1     0.00000    2.56915    9.11900    2.02486
      67      999        1     0.00000   14.38946    6.93341    6.98579
      68      999        1     0.00000   11.91916    4.45034   10.90848
      69      999        1     0.00000    7.44545    5.91496   13.02017
      70      999        1     0.00000    6.96674    8.14361   16.42249
      71      999        1     0.00000   11.83726    9.28095    3.43749
      72      999        1     0.00000    2.11048    7.37216    5.64074
      73      999        1     0.00000   20.90266    4.67855   10.43956
      74      999        1     0.00000   16.56231    6.36331   14.30576
      75      999        1     0.00000   15.87854    8.57621    0.42297
      76      999        1     0.00000   10.89628    7.21388    3.50378
      77      999        1     0.00000    1.37705    5.25936    5.90863
      78      999        1     0.00000   20.13049    2.58158   10.22249
      79      999        1     0.00000   15.77947    4.32882   14.79916
      80      999        1     0.00000   15.05640    6.52708    0.48255
      81      999        1     0.00000    9.95646    5.12272    3.17699
      82      999        1     0.00000    0.42186    3.25118    5.84486
      83      999        1     0.00000   19.09858    0.59178    9.78162
      84      999        1     0.00000   14.81927    2.29833   14.81995
      85      999        1     0.00000   14.16569    4.52816    0.83069
      86      999        1     0.00000    9.57956    9.18648    2.91424
      87      999        1     0.00000   21.28736    7.14198    5.95714
      88      999        1     0.00000   18.73721    4.39901   11.00085
      89      999        1     0.00000   14.28864    6.23586   14.51320
      90      999        1     0.00000   13.60812    8.49668    0.37954
      91      999        1     0.00000   15.65866    2.53577    4.23150
      92      999        1     0.00000    6.17470    0.59578    5.62026
      93      999        1     0.00000    3.34458   10.29807    8.87170
      94      999        1     0.00000   20.32283   11.96481   12.72614
      95      999        1     0.00000   19.74613    1.80917   16.73004
      96      999        1     0.00000   14.46763    0.68080    4.23412
      97      999        1     0.00000    4.84303   11.12695    5.54648
      98      999        1     0.00000    2.08278    8.42378    9.10644
      99      999        1     0.00000   19.11921   10.12522   13.18968
     100      999        1     0.00000   18.63220   12.33760   17.45265
     101      999        1     0.00000   13.41449    2.96952    4.28064
     102      999        1     0.00000    3.97736    1.05588    5.30058
     103      999        1     0.00000    1.09668   10.64443    8.89634
     104      999        1     0.00000   18.25795    0.09209   13.59173
     105      999        1     0.00000   17.69264    2.21820    0.14277
     106      999        1     0.00000   13.13014   11.30077    3.85431
     107      999        1     0.00000    3.32694    9.47689    5.37863
     108      999        1     0.00000    0.60890    6.71835    9.54030
     109      999        1     0.00000   17.83575    8.40325   13.92220
     110      999        1     0.00000   17.29822   10.66196    0.60071
     111      999        1     0.00000   12.17444    0.93366    3.73377
     112      999        1     0.00000    2.47950   11.54822    5.37425
     113      999        1     0.00000   21.00185    8.70937    9.16500
     114      999        1     0.00000   16.96721   10.47466   14.27132
     115      999        1     0.00000   16.44732    0.34926    0.98280
     116      999        1     0.00000   11.28205    3.04431    3.70335
     117      999        1     0.00000    1.81277    1.29418    5.25374
     118      999        1     0.00000   20.23456   10.79875    9.15036
     119      999        1     0.00000   16.10894    0.20724   14.42074
     120      999        1     0.00000   15.49577    2.41199    0.80896
     121      999        1     0.00000    1.12279    7.23919   18.95947
     122      999        1     0.00000   12.99614    4.96874   24.99760
     123      999        1     0.00000   10.39506    2.58324   28.16482
     124      999        1     0.00000    6.14431    3.97345   29.80677
     125      999        1     0.00000    5.53785    6.26043   33.41796
     126      999        1     0.00000    0.29886    9.24878   19.47421
     127      999        1     0.00000   12.09558    6.99104   24.69530
     128      999        1     0.00000    9.82221    4.73744   27.65805
     129      999        1     0.00000    5.25633    6.06835   29.81664
     130      999        1     0.00000    4.78212    8.38287   33.56234
     131      999        1     0.00000    4.85558    8.77041   19.49217
     132      999        1     0.00000   16.61368    6.63315   24.33826
     133      999        1     0.00000   14.04637    3.99216   29.01129
     134      999        1     0.00000    9.65049    5.63248   30.96506
     135      999        1     0.00000    9.09550    7.81296   34.39285
     136      999        1     0.00000    3.54502    6.97032   18.93563
     137      999        1     0.00000   15.42136    4.74515   24.84440
     138      999        1     0.00000   12.63178    2.21475   28.96544
     139      999        1     0.00000    8.48951    3.72266   30.50152
     140      999        1     0.00000    7.90977    5.93367   34.00352
     141      999        1     0.00000    2.09759    5.24024   18.82055
     142      999        1     0.00000   14.06756    2.98260   25.42831
     143      999        1     0.00000   11.14681    0.52418   28.78936
     144      999        1     0.00000    7.18246    1.94922   30.16941
     145      999        1     0.00000    6.48084    4.24906   33.60507
     146      999        1     0.00000    8.68152    6.92785   20.12083
     147      999        1     0.00000   20.35939    4.86182   23.79594
     148      999        1     0.00000   17.73883    2.17810   28.11837
     149      999        1     0.00000   13.33687    4.00880   32.48781
     150      999        1     0.00000   12.70572    6.26569   18.12234
     151      999        1     0.00000    7.33778    8.79750   19.99518
     152      999        1     0.00000   19.05825    6.72980   23.84273
     153      999        1     0.00000   16.54861    3.96366   28.80497
     154      999        1     0.00000   12.06261    5.74448   31.79680
     155      999        1     0.00000   11.43326    8.06789   17.64007
     156      999        1     0.00000    0.83476    3.13841   19.22018
     157      999        1     0.00000   12.78877    0.88396   25.25586
     158      999        1     0.00000    9.76630   10.83677   28.54495
     159      999        1     0.00000    5.81903   12.21916   30.23653
     160      999        1     0.00000    5.16621    2.20649   33.64553
     161      999        1     0.00000    0.03532    1.05825   19.39801
     162      999        1     0.00000   11.87934   11.16027   25.01863
     163      999        1     0.00000    9.11635    8.74380   28.18844
     164      999        1     0.00000    4.94835   10.12844   29.80926
     165      999        1     0.00000    4.36831    0.09065   33.66461
     166      999        1     0.00000   20.13404    2.92420   20.13305
     167      999        1     0.00000   10.62735    0.82340   24.51291
     168      999        1     0.00000    7.84872   10.66618   27.36181
     169      999        1     0.00000    3.57100   12.10638   29.96889
     170      999        1     0.00000    2.94965    2.08019   33.57228
     171      999        1     0.00000   20.64057   11.38682   20.00134
     172      999        1     0.00000   10.91713    9.12696   24.81811
     173      999        1     0.00000    8.49242    6.79799   27.34312
     174      999        1     0.00000    3.92941    8.18856   29.47235
     175      999        1     0.00000    3.40879   10.43163   33.59678
     176      999        1     0.00000   19.44590    0.74495   20.87974
     177      999        1     0.00000    9.62310   10.91601   24.31425
     178      999        1     0.00000    7.08815    8.45143   26.81724
     179      999        1     0.00000    2.50930    9.97327   29.55687
     180      999        1     0.00000    1.96368   12.20263   33.28927
     181      999        1     0.00000   18.10435    2.54203   21.18519
     182      999        1     0.00000    8.55715    0.48152   23.70169
     183      999        1     0.00000    5.83586   10.34676   26.39550
     184      999        1     0.00000    1.31026   11.91419   29.74349
     185      999        1     0.00000    0.69477    1.73264   33.42175
     186      999        1     0.00000    2.56915    9.11900   19.52486
     187      999        1     0.00000   14.38946    6.93341   24.48579
     188      999        1     0.00000   11.91916    4.45034   28.40849
     189      999        1     0.00000    7.44545    5.91496   30.52018
     190      999        1     0.00000    6.96674    8.14361   33.92249
     191      999        1     0.00000   11.83726    9.28095   20.93753
     192      999        1     0.00000    2.11048    7.37216   23.14074
     193      999        1     0.00000   20.90266    4.67855   27.93955
     194      999        1     0.00000   16.56231    6.36331   31.80576
     195      999        1     0.00000   15.87854    8.57621   17.92298
     196      999        1     0.00000   10.89628    7.21388   21.00378
     197      999        1     0.00000    1.37705    5.25936   23.40863
     198      999        1     0.00000   20.13049    2.58158   27.72248
     199      999        1     0.00000   15.77947    4.32882   32.29915
     200      999        1     0.00000   15.05640    6.52708   17.98254
     201      999        1     0.00000    9.95646    5.12272   20.67699
     202      999        1     0.00000    0.42186    3.25118   23.34486
     203      999        1     0.00000   19.09858    0.59178   27.28163
     204      999        1     0.00000   14.81927    2.29833   32.31994
     205      999        1     0.00000   14.16569    4.52816   18.33069
     206      999        1     0.00000    9.57956    9.18648   20.41424
     207      999        1     0.00000   21.28736    7.14198   23.45714
     208      999        1     0.00000   18.73721    4.39901   28.50085
     209      999        1     0.00000   14.28864    6.23586   32.01320
     210      999        1     0.00000   13.60812    8.49668   17.87954
     211      999        1     0.00000   15.65866    2.53577   21.73150
     212      999        1     0.00000    6.17470    0.59578   23.12026
     213      999        1     0.00000    3.34458   10.29807   26.37169
     214      999        1     0.00000   20.32283   11.96481   30.22614
     215      999        1     0.00000   19.74613    1.80917   34.23004
     216      999        1     0.00000   14.46763    0.68080   21.73413
     217      999        1     0.00000    4.84303   11.12695   23.04649
     218      999        1     0.00000    2.08278    8.42378   26.60644
     219      999        1     0.00000   19.11921   10.12522   30.68968
     220      999        1     0.00000   18.63220   12.33760   34.95264
     221      999        1     0.00000   13.41449    2.96952   21.78064
     222      999        1     0.00000    3.97736    1.05588   22.80058
     223      999        1     0.00000    1.09668   10.64443   26.39634
     224      999        1     0.00000   18.25795    0.09209   31.09173
     225      999        1     0.00000   17.69264    2.21820   17.64277
     226      999        1     0.00000   13.13014   11.30077   21.35431
     227      999        1     0.00000    3.32694    9.47689   22.87862
     228      999        1     0.00000    0.60890    6.71835   27.04030
     229      999        1     0.00000   17.83575    8.40325   31.42220
     230      999        1     0.00000   17.29822   10.66196   18.10071
     231      999        1     0.00000   12.17444    0.93366   21.23376
     232      999        1     0.00000    2.47950   11.54822   22.87425
     233      999        1     0.00000   21.00185    8.70937   26.66500
     234      999        1     0.00000   16.96721   10.47466   31.77132
     235      999        1     0.00000   16.44732    0.34926   18.48280
     236      999        1     0.00000   11.28205    3.04431   21.20335
     237      999        1     0.00000    1.81277    1.29418   22.75374
     238      999        1     0.00000   20.23456   10.79875   26.65037
     239      999        1     0.00000   16.10894    0.20724   31.92074
     240      999        1     0.00000   15.49577    2.41199   18.30896
     241      999        1     0.00000    1.12279   19.59258    1.45947
     242      999        1     0.00000   12.99614   17.32216    7.49759
     243      999        1     0.00000   10.39506   14.93663   10.66482
     244      999        1     0.00000    6.14431   16.32683   12.30677
     245      999        1     0.00000    5.53785   18.61382   15.91797
     246      999        1     0.00000    0.29886   21.60217    1.97421
     247      999        1     0.00000   12.09558   19.34442    7.19530
     248      999        1     0.00000    9.82221   17.09083   10.15805
     249      999        1     0.00000    5.25633   18.42174   12.31664
     250      999        1     0.00000    4.78212   20.73629   16.06234
     251      999        1     0.00000    4.85558   21.12383    1.99216
     252      999        1     0.00000   16.61368   18.98653    6.83826
     253      999        1     0.00000   14.04637   16.34559   11.51129
     254      999        1     0.00000    9.65049   17.98587   13.46506
     255      999        1     0.00000    9.09550   20.16634   16.89286
     256      999        1     0.00000    3.54502   19.32371    1.43563
     257      999        1     0.00000   15.42136   17.09858    7.34440
     258      999        1     0.00000   12.63178   14.56818   11.46544
     259      999        1     0.00000    8.48951   16.07608   13.00152
     260      999        1     0.00000    7.90977   18.28710   16.50352
     261      999        1     0.00000    2.09759   17.59366    1.32055
     262      999        1     0.00000   14.06756   15.33599    7.92830
     263      999        1     0.00000   11.14681   12.87760   11.28935
     264      999        1     0.00000    7.18246   14.30261   12.66940
     265      999        1     0.00000    6.48084   16.60245   16.10507
     266      999        1     0.00000    8.68152   19.28124    2.62084
     267      999        1     0.00000   20.35939   17.21520    6.29594
     268      999        1     0.00000   17.73883   14.53149   10.61837
     269      999        1     0.00000   13.33687   16.36219   14.98781
     270      999        1     0.00000   12.70572   18.61908    0.62234
     271      999        1     0.00000    7.33778   21.15089    2.49518
     272      999        1     0.00000   19.05825   19.08322    6.34273
     273      999        1     0.00000   16.54861   16.31705   11.30496
     274      999        1     0.00000   12.06261   18.09787   14.29680
     275      999        1     0.00000   11.43326   20.42132    0.14007
     276      999        1     0.00000    0.83476   15.49179    1.72018
     277      999        1     0.00000   12.78877   13.23735    7.75586
     278      999        1     0.00000    9.76630   23.19020   11.04495
     279      999        1     0.00000    5.81903   24.57254   12.73653
     280      999        1     0.00000    5.16621   14.55988   16.14553
     281      999        1     0.00000    0.03532   13.41164    1.89802
     282      999        1     0.00000   11.87934   23.51366    7.51863
     283      999        1     0.00000    9.11635   21.09719   10.68844
     284      999        1     0.00000    4.94835   22.48187   12.30925
     285      999        1     0.00000    4.36831   12.44407   16.16461
     286      999        1     0.00000   20.13404   15.27762    2.63305
     287      999        1     0.00000   10.62735   13.17683    7.01291
     288      999        1     0.00000    7.84872   23.01961    9.86181
     289      999        1     0.00000    3.57100   24.45977   12.46889
     290      999        1     0.00000    2.94965   14.43358   16.07228
     291      999        1     0.00000   20.64057   23.74025    2.50135
     292      999        1     0.00000   10.91713   21.48035    7.31811
     293      999        1     0.00000    8.49242   19.15141    9.84312
     294      999        1     0.00000    3.92941   20.54199   11.97235
     295      999        1     0.00000    3.40879   22.78502   16.09678
     296      999        1     0.00000   19.44590   13.09833    3.37974
     297      999        1     0.00000    9.62310   23.26940    6.81426
     298      999        1     0.00000    7.08815   20.80486    9.31725
     299      999        1     0.00000    2.50930   22.32670   12.05687
     300      999        1     0.00000    1.96368   24.55601   15.78927
     301      999        1     0.00000   18.10435   14.89542    3.68518
     302      999        1     0.00000    8.55715   12.83491    6.20168
     303      999        1     0.00000    5.83586   22.70019    8.89550
     304      999        1     0.00000    1.31026   24.26761   12.24349
     305      999        1     0.00000    0.69477   14.08603   15.92174
     306      999        1     0.00000    2.56915   21.47238    2.02486
     307      999        1     0.00000   14.38946   19.28680    6.98579
     308      999        1     0.00000   11.91916   16.80376   10.90848
     309      999        1     0.00000    7.44545   18.26834   13.02017
     310      999        1     0.00000    6.96674   20.49703   16.42249
     311      999        1     0.00000   11.83726   21.63434    3.43749
     312      999        1     0.00000    2.11048   19.72559    5.64074
     313      999        1     0.00000   20.90266   17.03198   10.43956
     314      999        1     0.00000   16.56231   18.71674   14.30576
     315      999        1     0.00000   15.87854   20.92964    0.42297
     316      999        1     0.00000   10.89628   19.56730    3.50378
     317      999        1     0.00000    1.37705   17.61279    5.90863
     318      999        1     0.00000   20.13049   14.93496   10.22249
     319      999        1     0.00000   15.77947   16.68220   14.79916
     320      999        1     0.00000   15.05640   18.88047    0.48255
     321      999        1     0.00000    9.95646   17.47611    3.17699
     322      999        1     0.00000    0.42186   15.60460    5.84486
     323      999        1     0.00000   19.09858   12.94516    9.78162
     324      999        1     0.00000   14.81927   14.65171   14.81995
     325      999        1     0.00000   14.16569   16.88155    0.83069
     326      999        1     0.00000    9.57956   21.53987    2.91424
     327      999        1     0.00000   21.28736   19.49537    5.95714
     328      999        1     0.00000   18.73721   16.75240   11.00085
     329      999        1     0.00000   14.28864   18.58925   14.51320
     330      999        1     0.00000   13.60812   20.85011    0.37954
     331      999        1     0.00000   15.65866   14.88916    4.23150
     332      999        1     0.00000    6.17470   12.94917    5.62026
     333      999        1     0.00000    3.34458   22.65149    8.87170
     334      999        1     0.00000   20.32283   24.31820   12.72614
     335      999        1     0.00000   19.74613   14.16256   16.73004
     336      999        1     0.00000   14.46763   13.03418    4.23412
     337      999        1     0.00000    4.84303   23.48038    5.54648
     338      999        1     0.00000    2.08278   20.77717    9.10644
     339      999        1     0.00000   19.11921   22.47864   13.18968
     340      999        1     0.00000   18.63220   24.69099   17.45265
     341      999        1     0.00000   13.41449   15.32291    4.28064
     342      999        1     0.00000    3.97736   13.40931    5.30058
     343      999        1     0.00000    1.09668   22.99782    8.89634
     344      999        1     0.00000   18.25795   12.44552   13.59173
     345      999        1     0.00000   17.69264   14.57159    0.14277
     346      999        1     0.00000   13.13014   23.65419    3.85431
     347      999        1     0.00000    3.32694   21.83027    5.37863
     348      999        1     0.00000    0.60890   19.07177    9.54030
     349      999        1     0.00000   17.83575   20.75664   13.92220
     350      999        1     0.00000   17.29822   23.01535    0.60071
     351      999        1     0.00000   12.17444   13.28705    3.73377
     352      999        1     0.00000    2.47950   23.90164    5.37425
     353      999        1     0.00000   21.00185   21.06279    9.16500
     354      999        1     0.00000   16.96721   22.82808   14.27132
     355      999        1     0.00000   16.44732   12.70268    0.98280
     356      999        1     0.00000   11.28205   15.39770    3.70335
     357      999        1     0.00000    1.81277   13.64760    5.25374
     358      999        1     0.00000   20.23456   23.15214    9.15036
     359      999        1     0.00000   16.10894   12.56063   14.42074
     360      999        1     0.00000   15.49577   14.76538    0.80896
     361      999        1     0.00000    1.12279   19.59258   18.95947
     362      999        1     0.00000   12.99614   17.32216   24.99760
     363      999        1     0.00000   10.39506   14.93663   28.16482
     364      999        1     0.00000    6.14431   16.32683   29.80677
     365      999        1     0.00000    5.53785   18.61382   33.41796
     366      999        1     0.00000    0.29886   21.60217   19.47421
     367      999        1     0.00000   12.09558   19.34442   24.69530
     368      999        1     0.00000    9.82221   17.09083   27.65805
     369      999        1     0.00000    5.25633   18.42174   29.81664
     370      999        1     0.00000    4.78212   20.73629   33.56234
     371      999        1     0.00000    4.85558   21.12383   19.49217
     372      999        1     0.00000   16.61368   18.98653   24.33826
     373      999        1     0.00000   14.04637   16.34559   29.01129
     374      999        1     0.00000    9.65049   17.98587   30.96506
     375      999        1     0.00000    9.09550   20.16634   34.39285
     376      999        1     0.00000    3.54502   19.32371   18.93563
     377      999        1     0.00000   15.42136   17.09858   24.84440
     378      999        1     0.00000   12.63178   14.56818   28.96544
     379      999        1     0.00000    8.48951   16.07608   30.50152
     380      999        1     0.00000    7.90977   18.28710   34.00352
     381      999        1     0.00000    2.09759   17.59366   18.82055
     382      999        1     0.00000   14.06756   15.33599   25.42831
     383      999        1     0.00000   11.14681   12.87760   28.78936
     384      999        1     0.00000    7.18246   14.30261   30.16941
     385      999        1     0.00000    6.48084   16.60245   33.60507
     386      999        1     0.00000    8.68152   19.28124   20.12083
     387      999        1     0.00000   20.35939   17.21520   23.79594
     388      999        1     0.00000   17.73883   14.53149   28.11837
     389      999        1     0.00000   13.33687   16.36219   32.48781
     390      999        1     0.00000   12.70572   18.61908   18.12234
     391      999        1     0.00000    7.33778   21.15089   19.99518